                         Program Version 5.0.4 -  RELEASE  -
|  1> # put your comments here
|  2> %pal nprocs 6 end
|  3> ! PBE0 def2-tzvp SP DEFGRID3 NOTRAH CHELPG D3BJ
|  4> %scf MaxIter 800 end
|  5> %output
|  6> Print [P_Hirshfeld] 1
|  7> end
|  8> %MaxCore 1000.0
|  9> * xyz 0 1
| 10>  C     -5.135709000      3.853313000     -6.492230000
| 11>  C     -6.071343000      4.600901000     -7.407071000
| 12>  O     -5.626321000      5.311238000     -8.276309000
| 13>  C     -5.467781000      4.190284000     -5.037143000
| 14>  H     -6.520525000      3.981629000     -4.846996000
| 15>  C     -4.602661000      3.338370000     -4.106216000
| 16>  H     -3.549917000      3.547025000     -4.296363000
| 17>  C     -4.934636000      3.675349000     -2.651150000
| 18>  O     -4.047504000      2.966437000     -1.783665000
| 19>  O     -4.864871000      1.954220000     -4.346334000
| 20>  O     -5.205572000      5.574340000     -4.797060000
| 21>  H     -5.250704000      2.781287000     -6.652178000
| 22>  H     -4.107588000      4.144557000     -6.707133000
| 23>  H     -7.139814000      4.501320000     -7.285198000
| 24>  H     -4.819738000      4.747368000     -2.491181000
| 25>  H     -5.962757000      3.384011000     -2.436283000
| 26>  H     -4.200580000      3.132643000     -0.843475000
| 27>  H     -5.784737000      1.696460000     -4.196492000
| 28>  H     -4.285705000      5.832194000     -4.946867000
| 29> *
| 30>
| 31>
| 32>
| 33>
| 34>                          ****END OF INPUT****

CARTESIAN COORDINATES (ANGSTROEM)
---------------------------------
  C     -5.135709    3.853313   -6.492230
  C     -6.071343    4.600901   -7.407071
  O     -5.626321    5.311238   -8.276309
  C     -5.467781    4.190284   -5.037143
  H     -6.520525    3.981629   -4.846996
  C     -4.602661    3.338370   -4.106216
  H     -3.549917    3.547025   -4.296363
  C     -4.934636    3.675349   -2.651150
  O     -4.047504    2.966437   -1.783665
  O     -4.864871    1.954220   -4.346334
  O     -5.205572    5.574340   -4.797060
  H     -5.250704    2.781287   -6.652178
  H     -4.107588    4.144557   -6.707133
  H     -7.139814    4.501320   -7.285198
  H     -4.819738    4.747368   -2.491181
  H     -5.962757    3.384011   -2.436283
  H     -4.200580    3.132643   -0.843475
  H     -5.784737    1.696460   -4.196492
  H     -4.285705    5.832194   -4.946867

 Total Charge           Charge          ....    0
 Multiplicity           Mult            ....    1
 Number of Electrons    NEL             ....   72
 Basis Dimension        Dim             ....  339

ORBITAL ENERGIES
----------------

  NO   OCC          E(Eh)            E(eV)
   0   2.0000     -19.222374      -523.0674
   1   2.0000     -19.216195      -522.8992
   2   2.0000     -19.206853      -522.6450
   3   2.0000     -19.203306      -522.5485
   4   2.0000     -10.311347      -280.5860
   5   2.0000     -10.299095      -280.2526
   6   2.0000     -10.289793      -279.9995
   7   2.0000     -10.274718      -279.5893
   8   2.0000     -10.235982      -278.5352
   9   2.0000      -1.080581       -29.4041
  10   2.0000      -1.073621       -29.2147
  11   2.0000      -1.060263       -28.8512
  12   2.0000      -1.043174       -28.3862
  13   2.0000      -0.826132       -22.4802
  14   2.0000      -0.776891       -21.1403
  15   2.0000      -0.688324       -18.7302
  16   2.0000      -0.649487       -17.6734
  17   2.0000      -0.612150       -16.6574
  18   2.0000      -0.556057       -15.1311
  19   2.0000      -0.534267       -14.5381
  20   2.0000      -0.527698       -14.3594
  21   2.0000      -0.505242       -13.7483
  22   2.0000      -0.490369       -13.3436
  23   2.0000      -0.475399       -12.9363
  24   2.0000      -0.465346       -12.6627
  25   2.0000      -0.431222       -11.7342
  26   2.0000      -0.424772       -11.5586
  27   2.0000      -0.404879       -11.0173
  28   2.0000      -0.397990       -10.8299
  29   2.0000      -0.388537       -10.5726
  30   2.0000      -0.365800        -9.9539
  31   2.0000      -0.337794        -9.1919
  32   2.0000      -0.329670        -8.9708
  33   2.0000      -0.296492        -8.0680
  34   2.0000      -0.288430        -7.8486
  35   2.0000      -0.269216        -7.3257
  36   0.0000      -0.025479        -0.6933
  37   0.0000       0.019904         0.5416
  38   0.0000       0.031375         0.8538
  39   0.0000       0.040911         1.1133
  40   0.0000       0.062782         1.7084

MULLIKEN ATOMIC CHARGES
-----------------------
   0 C :   -0.069213
   1 C :    0.103884
   2 O :   -0.274350
   3 C :   -0.090749
   4 H :    0.093057
   5 C :    0.120099
   6 H :    0.087664
   7 C :   -0.055519
   8 O :   -0.441286
   9 O :   -0.443627
  10 O :   -0.450983
  11 H :    0.128376
  12 H :    0.102617
  13 H :    0.071591
  14 H :    0.109038
  15 H :    0.076703
  16 H :    0.309371
  17 H :    0.306432
  18 H :    0.316896
Sum of atomic charges:    0.0000000

LOEWDIN ATOMIC CHARGES
----------------------
   0 C :   -0.240773
   1 C :   -0.283932
   2 O :    0.114748
   3 C :   -0.335404
   4 H :    0.146813
   5 C :   -0.333049
   6 H :    0.150250
   7 C :   -0.332256
   8 O :   -0.051554
   9 O :   -0.003759
  10 O :   -0.003420
  11 H :    0.157771
  12 H :    0.149016
  13 H :    0.107498
  14 H :    0.122656
  15 H :    0.114340
  16 H :    0.169849
  17 H :    0.172811
  18 H :    0.178397

  Mayer bond orders larger than 0.100000
B(  0-C ,  1-C ) :   0.9341 B(  0-C ,  3-C ) :   0.9813 B(  0-C , 11-H ) :   0.9241
B(  0-C , 12-H ) :   0.9171 B(  1-C ,  2-O ) :   2.1265 B(  1-C , 13-H ) :   0.9645
B(  3-C ,  4-H ) :   0.9378 B(  3-C ,  5-C ) :   0.9942 B(  3-C , 10-O ) :   0.9761
B(  5-C ,  6-H ) :   0.9230 B(  5-C ,  7-C ) :   1.0107 B(  5-C ,  9-O ) :   0.9645
B(  7-C ,  8-O ) :   1.1195 B(  7-C , 14-H ) :   0.9627 B(  7-C , 15-H ) :   0.9321
B(  8-O , 16-H ) :   0.8916 B(  9-O , 17-H ) :   0.8823 B( 10-O , 18-H ) :   0.8768

Dispersion correction           -0.013937426
FINAL SINGLE POINT ENERGY      -497.067121840312

DIPOLE MOMENT
-------------
                                X             Y             Z
Electronic contribution:      0.08926       1.14633      -3.14467
Nuclear contribution   :     -0.66616      -1.44829       4.29567
                        -----------------------------------------
Total Dipole Moment    :     -0.57689      -0.30196       1.15100
                        -----------------------------------------
Magnitude (a.u.)       :      1.32242
Magnitude (Debye)      :      3.36132

Rotational constants in cm-1:     0.131277     0.024887     0.022047
Rotational constants in MHz :  3935.584633   746.093068   660.959096

                             ****ORCA TERMINATED NORMALLY****
TOTAL RUN TIME: 0 days 0 hours 0 minutes 43 seconds 635 msec
