                         Program Version 5.0.4 -  RELEASE  -
|  1> # put your comments here
|  2> %pal nprocs 6 end
|  3> ! PBE0 def2-tzvp SP DEFGRID3 NOTRAH CHELPG D3BJ
|  4> %scf MaxIter 800 end
|  5> %output
|  6> Print [P_Hirshfeld] 1
|  7> end
|  8> %MaxCore 1000.0
|  9> * xyz 0 1
| 10>  O      3.879757000     -1.494756000     -1.186643000
| 11>  C      3.880288000     -1.493896000      0.029230000
| 12>  N      3.879054000     -0.322775000      0.691590000
| 13>  C      3.879566000     -0.295863000      2.059660000
| 14>  C      3.881010000     -1.455589000      2.751272000
| 15>  C      3.881935000     -2.680662000      2.041847000
| 16>  O      3.882788000     -3.739356000      2.643751000
| 17>  N      3.876619000     -2.664450000      0.693554000
| 18>  H      3.878048000      0.510204000      0.194641000
| 19>  H      3.879333000      0.648370000      2.583748000
| 20>  H      3.881856000     -1.448527000      3.831218000
| 21>  H      3.876830000     -3.499773000      0.200388000
| 22> *
| 23>
| 24>
| 25>
| 26>
| 27>                          ****END OF INPUT****

CARTESIAN COORDINATES (ANGSTROEM)
---------------------------------
  O      3.879757   -1.494756   -1.186643
  C      3.880288   -1.493896    0.029230
  N      3.879054   -0.322775    0.691590
  C      3.879566   -0.295863    2.059660
  C      3.881010   -1.455589    2.751272
  C      3.881935   -2.680662    2.041847
  O      3.882788   -3.739356    2.643751
  N      3.876619   -2.664450    0.693554
  H      3.878048    0.510204    0.194641
  H      3.879333    0.648370    2.583748
  H      3.881856   -1.448527    3.831218
  H      3.876830   -3.499773    0.200388

 Total Charge           Charge          ....    0
 Multiplicity           Mult            ....    1
 Number of Electrons    NEL             ....   58
 Basis Dimension        Dim             ....  272

ORBITAL ENERGIES
----------------

  NO   OCC          E(Eh)            E(eV)
   0   2.0000     -19.180154      -521.9185
   1   2.0000     -19.174771      -521.7720
   2   2.0000     -14.463872      -393.5820
   3   2.0000     -14.447141      -393.1267
   4   2.0000     -10.373857      -282.2870
   5   2.0000     -10.334833      -281.2251
   6   2.0000     -10.312802      -280.6256
   7   2.0000     -10.245238      -278.7871
   8   2.0000      -1.130720       -30.7684
   9   2.0000      -1.080287       -29.3961
  10   2.0000      -1.021989       -27.8097
  11   2.0000      -0.984830       -26.7986
  12   2.0000      -0.835188       -22.7266
  13   2.0000      -0.737426       -20.0664
  14   2.0000      -0.700391       -19.0586
  15   2.0000      -0.639827       -17.4106
  16   2.0000      -0.608355       -16.5542
  17   2.0000      -0.571530       -15.5521
  18   2.0000      -0.523823       -14.2540
  19   2.0000      -0.498233       -13.5576
  20   2.0000      -0.471230       -12.8228
  21   2.0000      -0.446612       -12.1529
  22   2.0000      -0.435337       -11.8461
  23   2.0000      -0.433404       -11.7935
  24   2.0000      -0.396417       -10.7871
  25   2.0000      -0.309188        -8.4134
  26   2.0000      -0.307697        -8.3729
  27   2.0000      -0.279211        -7.5977
  28   2.0000      -0.271674        -7.3926
  29   0.0000      -0.051952        -1.4137
  30   0.0000       0.010677         0.2905
  31   0.0000       0.023621         0.6428
  32   0.0000       0.060361         1.6425
  33   0.0000       0.069531         1.8920

MULLIKEN ATOMIC CHARGES
-----------------------
   0 O :   -0.373944
   1 C :    0.290003
   2 N :   -0.192477
   3 C :    0.005306
   4 C :   -0.217566
   5 C :    0.213295
   6 O :   -0.354661
   7 N :   -0.168786
   8 H :    0.243832
   9 H :    0.154862
  10 H :    0.155656
  11 H :    0.244481
Sum of atomic charges:   -0.0000000

LOEWDIN ATOMIC CHARGES
----------------------
   0 O :    0.056241
   1 C :   -0.526325
   2 N :    0.208589
   3 C :   -0.163533
   4 C :   -0.149896
   5 C :   -0.464932
   6 O :    0.082302
   7 N :    0.251805
   8 H :    0.193078
   9 H :    0.149896
  10 H :    0.163145
  11 H :    0.199631

  Mayer bond orders larger than 0.100000
B(  0-O ,  1-C ) :   2.0656 B(  1-C ,  2-N ) :   1.1533 B(  1-C ,  7-N ) :   1.1793
B(  2-N ,  3-C ) :   1.1378 B(  2-N ,  8-H ) :   0.9091 B(  3-C ,  4-C ) :   1.6965
B(  3-C ,  9-H ) :   0.9318 B(  4-C ,  5-C ) :   1.1526 B(  4-C , 10-H ) :   0.9523
B(  5-C ,  6-O ) :   2.0381 B(  5-C ,  7-N ) :   1.1377 B(  7-N , 11-H ) :   0.8911

Dispersion correction           -0.009933195
FINAL SINGLE POINT ENERGY      -414.526485950050

DIPOLE MOMENT
-------------
                                X             Y             Z
Electronic contribution:      0.00234      -1.41796      -1.53838
Nuclear contribution   :     -0.00401       3.13876       1.94293
                        -----------------------------------------
Total Dipole Moment    :     -0.00167       1.72080       0.40455
                        -----------------------------------------
Magnitude (a.u.)       :      1.76772
Magnitude (Debye)      :      4.49318

Rotational constants in cm-1:     0.133245     0.071733     0.046630
Rotational constants in MHz :  3994.586609  2150.493531  1397.922324

                             ****ORCA TERMINATED NORMALLY****
TOTAL RUN TIME: 0 days 0 hours 0 minutes 31 seconds 662 msec
