                         Program Version 5.0.4 -  RELEASE  -
|  1> # put your comments here
|  2> %pal nprocs 6 end
|  3> ! PBE0 def2-tzvp SP DEFGRID3 NOTRAH CHELPG D3BJ
|  4> %scf MaxIter 800 end
|  5> %output
|  6> Print [P_Hirshfeld] 1
|  7> end
|  8> %MaxCore 1000.0
|  9> * xyz 0 1
| 10>  C     -3.424960000     -0.862820000      1.480441000
| 11>  N     -3.424960000      0.010086000      2.512989000
| 12>  H     -3.424960000      0.977886000      2.448819000
| 13>  C     -3.424960000     -0.733223000      3.674316000
| 14>  C     -3.424960000     -0.440378000      5.039604000
| 15>  N     -3.424960000     -1.450192000      5.905656000
| 16>  C     -3.424960000     -2.704446000      5.491409000
| 17>  N     -3.424960000     -3.028055000      4.217397000
| 18>  C     -3.424960000     -2.079661000      3.274940000
| 19>  N     -3.424960000     -2.087387000      1.928646000
| 20>  N     -3.424960000      0.872468000      5.482440000
| 21>  H     -3.424960000     -0.586194000      0.436481000
| 22>  H     -3.424960000     -3.494431000      6.227851000
| 23>  H     -3.424960000      1.600480000      4.841425000
| 24>  H     -3.424960000      1.063566000      6.433414000
| 25> *
| 26>
| 27>
| 28>
| 29>
| 30>                          ****END OF INPUT****

CARTESIAN COORDINATES (ANGSTROEM)
---------------------------------
  C     -3.424960   -0.862820    1.480441
  N     -3.424960    0.010086    2.512989
  H     -3.424960    0.977886    2.448819
  C     -3.424960   -0.733223    3.674316
  C     -3.424960   -0.440378    5.039604
  N     -3.424960   -1.450192    5.905656
  C     -3.424960   -2.704446    5.491409
  N     -3.424960   -3.028055    4.217397
  C     -3.424960   -2.079661    3.274940
  N     -3.424960   -2.087387    1.928646
  N     -3.424960    0.872468    5.482440
  H     -3.424960   -0.586194    0.436481
  H     -3.424960   -3.494431    6.227851
  H     -3.424960    1.600480    4.841425
  H     -3.424960    1.063566    6.433414

 Total Charge           Charge          ....    0
 Multiplicity           Mult            ....    1
 Number of Electrons    NEL             ....   70
 Basis Dimension        Dim             ....  340

ORBITAL ENERGIES
----------------

  NO   OCC          E(Eh)            E(eV)
   0   2.0000     -14.460591      -393.4927
   1   2.0000     -14.409235      -392.0952
   2   2.0000     -14.372958      -391.1081
   3   2.0000     -14.372292      -391.0899
   4   2.0000     -14.362074      -390.8119
   5   2.0000     -10.321900      -280.8732
   6   2.0000     -10.306732      -280.4604
   7   2.0000     -10.281888      -279.7844
   8   2.0000     -10.278444      -279.6907
   9   2.0000     -10.267145      -279.3832
  10   2.0000      -1.079438       -29.3730
  11   2.0000      -1.014249       -27.5991
  12   2.0000      -0.968428       -26.3523
  13   2.0000      -0.923744       -25.1364
  14   2.0000      -0.881045       -23.9745
  15   2.0000      -0.805015       -21.9056
  16   2.0000      -0.699747       -19.0411
  17   2.0000      -0.682217       -18.5641
  18   2.0000      -0.656423       -17.8622
  19   2.0000      -0.614860       -16.7312
  20   2.0000      -0.573106       -15.5950
  21   2.0000      -0.549898       -14.9635
  22   2.0000      -0.538847       -14.6628
  23   2.0000      -0.494027       -13.4432
  24   2.0000      -0.486627       -13.2418
  25   2.0000      -0.475543       -12.9402
  26   2.0000      -0.450973       -12.2716
  27   2.0000      -0.427972       -11.6457
  28   2.0000      -0.379488       -10.3264
  29   2.0000      -0.318089        -8.6556
  30   2.0000      -0.315843        -8.5945
  31   2.0000      -0.288698        -7.8559
  32   2.0000      -0.279347        -7.6014
  33   2.0000      -0.245543        -6.6816
  34   2.0000      -0.245155        -6.6710
  35   0.0000      -0.033422        -0.9094
  36   0.0000       0.002690         0.0732
  37   0.0000       0.004851         0.1320
  38   0.0000       0.052038         1.4160
  39   0.0000       0.057258         1.5581

MULLIKEN ATOMIC CHARGES
-----------------------
   0 C :    0.069841
   1 N :   -0.236746
   2 H :    0.210144
   3 C :   -0.003776
   4 C :    0.201105
   5 N :   -0.241727
   6 C :    0.043447
   7 N :   -0.227554
   8 C :    0.079547
   9 N :   -0.215361
  10 N :   -0.423938
  11 H :    0.157978
  12 H :    0.132207
  13 H :    0.214129
  14 H :    0.240704
Sum of atomic charges:    0.0000000

LOEWDIN ATOMIC CHARGES
----------------------
   0 C :   -0.264964
   1 N :    0.204795
   2 H :    0.169593
   3 C :   -0.181678
   4 C :   -0.295257
   5 N :    0.121594
   6 C :   -0.304653
   7 N :    0.135242
   8 C :   -0.296616
   9 N :    0.132879
  10 N :    0.008954
  11 H :    0.138009
  12 H :    0.134650
  13 H :    0.144578
  14 H :    0.152873

  Mayer bond orders larger than 0.100000
B(  0-C ,  1-N ) :   1.2234 B(  0-C ,  9-N ) :   1.6582 B(  0-C , 11-H ) :   0.9548
B(  1-N ,  2-H ) :   0.9231 B(  1-N ,  3-C ) :   1.0919 B(  3-C ,  4-C ) :   1.2498
B(  3-C ,  8-C ) :   1.3462 B(  4-C ,  5-N ) :   1.5615 B(  4-C , 10-N ) :   1.2095
B(  5-N ,  6-C ) :   1.4176 B(  6-C ,  7-N ) :   1.5484 B(  6-C , 12-H ) :   0.9699
B(  7-N ,  8-C ) :   1.4468 B(  8-C ,  9-N ) :   1.4110 B( 10-N , 13-H ) :   0.9372
B( 10-N , 14-H ) :   0.9076

Dispersion correction           -0.014173001
FINAL SINGLE POINT ENERGY      -466.961929218609

DIPOLE MOMENT
-------------
                                X             Y             Z
Electronic contribution:     -0.00000      -2.43222      -1.05400
Nuclear contribution   :     -0.00000       5.21261       0.76343
                        -----------------------------------------
Total Dipole Moment    :     -0.00000       2.78040      -0.29057
                        -----------------------------------------
Magnitude (a.u.)       :      2.79554
Magnitude (Debye)      :      7.10569

Rotational constants in cm-1:     0.080304     0.052150     0.031617
Rotational constants in MHz :  2407.459188  1563.417841   947.867340

                             ****ORCA TERMINATED NORMALLY****
TOTAL RUN TIME: 0 days 0 hours 0 minutes 49 seconds 500 msec
