                         Program Version 5.0.4 -  RELEASE  -
|  1> # put your comments here
|  2> %pal nprocs 6 end
|  3> ! PBE0 def2-tzvp SP DEFGRID3 NOTRAH CHELPG D3BJ
|  4> %scf MaxIter 800 end
|  5> %output
|  6> Print [P_Hirshfeld] 1
|  7> end
|  8> %MaxCore 1000.0
|  9> * xyz 0 1
| 10>  C      1.434509000      2.241821000     -6.368467000
| 11>  C      1.434509000      3.629252000     -6.351999000
| 12>  N      1.434509000      4.275846000     -5.198802000
| 13>  C      1.434509000      3.620472000     -4.039661000
| 14>  O      1.434509000      4.250914000     -2.995381000
| 15>  N      1.434509000      2.274934000     -3.999193000
| 16>  H      1.434509000      1.814988000     -3.145175000
| 17>  C      1.434509000      1.558209000     -5.161411000
| 18>  N      1.434509000      0.187648000     -5.135847000
| 19>  H      1.434509000      1.703508000     -7.304762000
| 20>  H      1.434509000      4.180659000     -7.280650000
| 21>  H      1.434509000     -0.281653000     -4.286837000
| 22>  H      1.434509000     -0.312931000     -5.966683000
| 23> *
| 24>
| 25>
| 26>
| 27>
| 28>                          ****END OF INPUT****

CARTESIAN COORDINATES (ANGSTROEM)
---------------------------------
  C      1.434509    2.241821   -6.368467
  C      1.434509    3.629252   -6.351999
  N      1.434509    4.275846   -5.198802
  C      1.434509    3.620472   -4.039661
  O      1.434509    4.250914   -2.995381
  N      1.434509    2.274934   -3.999193
  H      1.434509    1.814988   -3.145175
  C      1.434509    1.558209   -5.161411
  N      1.434509    0.187648   -5.135847
  H      1.434509    1.703508   -7.304762
  H      1.434509    4.180659   -7.280650
  H      1.434509   -0.281653   -4.286837
  H      1.434509   -0.312931   -5.966683

 Total Charge           Charge          ....    0
 Multiplicity           Mult            ....    1
 Number of Electrons    NEL             ....   58
 Basis Dimension        Dim             ....  278

ORBITAL ENERGIES
----------------

  NO   OCC          E(Eh)            E(eV)
   0   2.0000     -19.136787      -520.7385
   1   2.0000     -14.453807      -393.3081
   2   2.0000     -14.440807      -392.9543
   3   2.0000     -14.356155      -390.6508
   4   2.0000     -10.354258      -281.7537
   5   2.0000     -10.322163      -280.8803
   6   2.0000     -10.277074      -279.6534
   7   2.0000     -10.230024      -278.3731
   8   2.0000      -1.089405       -29.6442
   9   2.0000      -1.025059       -27.8933
  10   2.0000      -0.967352       -26.3230
  11   2.0000      -0.935421       -25.4541
  12   2.0000      -0.807126       -21.9630
  13   2.0000      -0.712219       -19.3805
  14   2.0000      -0.693755       -18.8780
  15   2.0000      -0.624245       -16.9866
  16   2.0000      -0.590125       -16.0581
  17   2.0000      -0.573724       -15.6118
  18   2.0000      -0.533246       -14.5104
  19   2.0000      -0.495148       -13.4737
  20   2.0000      -0.477909       -13.0046
  21   2.0000      -0.445502       -12.1227
  22   2.0000      -0.409990       -11.1564
  23   2.0000      -0.405277       -11.0281
  24   2.0000      -0.351839        -9.5740
  25   2.0000      -0.311469        -8.4755
  26   2.0000      -0.270205        -7.3526
  27   2.0000      -0.257668        -7.0115
  28   2.0000      -0.231636        -6.3031
  29   0.0000      -0.043291        -1.1780
  30   0.0000       0.007225         0.1966
  31   0.0000       0.021286         0.5792
  32   0.0000       0.045282         1.2322
  33   0.0000       0.062336         1.6962

MULLIKEN ATOMIC CHARGES
-----------------------
   0 C :   -0.262378
   1 C :   -0.036327
   2 N :   -0.217614
   3 C :    0.231138
   4 O :   -0.375728
   5 N :   -0.191672
   6 H :    0.218564
   7 C :    0.315076
   8 N :   -0.410571
   9 H :    0.113845
  10 H :    0.127856
  11 H :    0.236569
  12 H :    0.251244
Sum of atomic charges:   -0.0000000

LOEWDIN ATOMIC CHARGES
----------------------
   0 C :   -0.207542
   1 C :   -0.190425
   2 N :    0.133856
   3 C :   -0.586891
   4 O :    0.045638
   5 N :    0.242731
   6 H :    0.185929
   7 C :   -0.257100
   8 N :    0.030227
   9 H :    0.144959
  10 H :    0.141644
  11 H :    0.153735
  12 H :    0.163237

  Mayer bond orders larger than 0.100000
B(  0-C ,  1-C ) :   1.3550 B(  0-C ,  7-C ) :   1.4368 B(  0-C ,  9-H ) :   0.9586
B(  1-C ,  2-N ) :   1.6359 B(  1-C , 10-H ) :   0.9728 B(  2-N ,  3-C ) :   1.3183
B(  3-C ,  4-O ) :   2.0665 B(  3-C ,  5-N ) :   1.0691 B(  5-N ,  6-H ) :   0.9037
B(  5-N ,  7-C ) :   1.2375 B(  7-C ,  8-N ) :   1.2286 B(  8-N , 11-H ) :   0.9190
B(  8-N , 12-H ) :   0.9152

Dispersion correction           -0.010785499
FINAL SINGLE POINT ENERGY      -394.634172942557

DIPOLE MOMENT
-------------
                                X             Y             Z
Electronic contribution:      0.00000       2.83994       2.29302
Nuclear contribution   :     -0.00000      -6.08213      -3.41724
                        -----------------------------------------
Total Dipole Moment    :      0.00000      -3.24220      -1.12422
                        -----------------------------------------
Magnitude (a.u.)       :      3.43157
Magnitude (Debye)      :      8.72237

Rotational constants in cm-1:     0.133880     0.068121     0.045149
Rotational constants in MHz :  4013.612926  2042.224968  1353.520466

                             ****ORCA TERMINATED NORMALLY****
TOTAL RUN TIME: 0 days 0 hours 0 minutes 30 seconds 365 msec
